
Host: toto

Timers On : Thu Jul 14 13:56:37 2022
Timers Off: Thu Jul 14 13:58:01 2022

Wall Time:       84.57 seconds

                                                       Time (seconds)
Module                                       User      System        Wall        Calls

--------------------------------------------------------------------------------------

**************************************************************************************

Host: toto

Timers On : Thu Jul 14 13:58:33 2022
Timers Off: Thu Jul 14 14:02:56 2022

Wall Time:      263.90 seconds

                                                       Time (seconds)
Module                                       User      System        Wall        Calls

--------------------------------------------------------------------------------------

**************************************************************************************

Host: toto

Timers On : Thu Jul 14 14:00:15 2022
Timers Off: Thu Jul 14 14:02:59 2022

Wall Time:      164.12 seconds

                                                       Time (seconds)
Module                                       User      System        Wall        Calls

--------------------------------------------------------------------------------------

**************************************************************************************

Host: toto

Timers On : Thu Jul 14 14:13:46 2022
Timers Off: Thu Jul 14 14:16:15 2022

Wall Time:      149.18 seconds

                                                       Time (seconds)
Module                                       User      System        Wall        Calls

--------------------------------------------------------------------------------------

**************************************************************************************

Host: toto

Timers On : Thu Jul 14 14:16:20 2022
Timers Off: Thu Jul 14 14:16:36 2022

Wall Time:       15.92 seconds

                                                       Time (seconds)
Module                                       User      System        Wall        Calls

--------------------------------------------------------------------------------------

**************************************************************************************

Host: toto

Timers On : Thu Jul 14 14:58:11 2022
Timers Off: Thu Jul 14 17:35:28 2022

Wall Time:     9436.40 seconds

                                                       Time (seconds)
Module                                       User      System        Wall        Calls

--------------------------------------------------------------------------------------

**************************************************************************************

Host: toto

Timers On : Thu Jul 14 14:57:15 2022
Timers Off: Thu Jul 14 17:36:29 2022

Wall Time:     9554.50 seconds

                                                       Time (seconds)
Module                                       User      System        Wall        Calls

--------------------------------------------------------------------------------------

**************************************************************************************

Host: toto

Timers On : Thu Jul 14 14:11:27 2022
Timers Off: Thu Jul 14 17:37:10 2022

Wall Time:    12343.35 seconds

                                                       Time (seconds)
Module                                       User      System        Wall        Calls

--------------------------------------------------------------------------------------

**************************************************************************************

Host: toto

Timers On : Thu Jul 14 14:16:41 2022
Timers Off: Thu Jul 14 17:37:43 2022

Wall Time:    12062.24 seconds

                                                       Time (seconds)
Module                                       User      System        Wall        Calls

--------------------------------------------------------------------------------------

**************************************************************************************

Host: toto

Timers On : Thu Jul 14 17:37:48 2022
Timers Off: Thu Jul 14 17:46:29 2022

Wall Time:      521.09 seconds

                                                       Time (seconds)
Module                                       User      System        Wall        Calls

--------------------------------------------------------------------------------------

**************************************************************************************

Host: toto

Timers On : Thu Jul 14 17:37:15 2022
Timers Off: Thu Jul 14 18:32:16 2022

Wall Time:     3300.70 seconds

                                                       Time (seconds)
Module                                       User      System        Wall        Calls

--------------------------------------------------------------------------------------

**************************************************************************************

Host: toto

Timers On : Thu Jul 14 17:35:34 2022
Timers Off: Thu Jul 14 18:32:18 2022

Wall Time:     3404.16 seconds

                                                       Time (seconds)
Module                                       User      System        Wall        Calls

--------------------------------------------------------------------------------------

**************************************************************************************

Host: toto

Timers On : Thu Jul 14 17:37:05 2022
Timers Off: Thu Jul 14 18:32:21 2022

Wall Time:     3316.67 seconds

                                                       Time (seconds)
Module                                       User      System        Wall        Calls

--------------------------------------------------------------------------------------

**************************************************************************************

Host: toto

Timers On : Thu Jul 14 17:46:34 2022
Timers Off: Thu Jul 14 18:32:24 2022

Wall Time:     2749.77 seconds

                                                       Time (seconds)
Module                                       User      System        Wall        Calls

--------------------------------------------------------------------------------------

**************************************************************************************

Host: toto

Timers On : Thu Jul 14 17:36:34 2022
Timers Off: Thu Jul 14 18:32:27 2022

Wall Time:     3352.24 seconds

                                                       Time (seconds)
Module                                       User      System        Wall        Calls

--------------------------------------------------------------------------------------

**************************************************************************************

Host: toto

Timers On : Sun Jul 17 14:21:22 2022
Timers Off: Sun Jul 17 14:24:51 2022

Wall Time:      209.14 seconds

                                                       Time (seconds)
Module                                       User      System        Wall        Calls

--------------------------------------------------------------------------------------

**************************************************************************************
